# generated lammps structure file by LammpsStructure

32 atoms
2 atom types

0.0 7.016970105212657 xlo xhi
0.0 7.016970105212657 ylo yhi
0.0 7.016970105212657 zlo zhi

0.000000000000000 0.000000000000000 0.000000000000000 xy xz yz

Atoms

1 1 7.016970105212657 7.016970105212657 7.016970105212656
2 1 3.508485052606328 7.016970105212656 7.016970105212657
3 1 3.508485052606328 0.000000000000000 3.508485052606328
4 1 3.508485052606328 3.508485052606328 7.016970105212657
5 1 1.754242526303164 5.262727578909493 3.508485052606329
6 1 5.262727578909493 1.754242526303164 3.508485052606328
7 1 5.262727578909493 5.262727578909493 7.016970105212656
8 1 5.262727578909493 5.262727578909492 3.508485052606328
9 1 7.016970105212656 5.262727578909494 5.262727578909492
10 1 3.508485052606328 1.754242526303165 5.262727578909493
11 1 3.508485052606328 5.262727578909493 1.754242526303164
12 1 3.508485052606328 5.262727578909493 5.262727578909492
13 1 1.754242526303165 3.508485052606329 1.754242526303163
14 1 5.262727578909494 0.000000000000001 1.754242526303164
15 1 5.262727578909493 3.508485052606327 1.754242526303164
16 1 5.262727578909493 3.508485052606329 5.262727578909493
17 2 0.000000000000000 7.016970105212657 3.508485052606327
18 2 7.016970105212657 3.508485052606328 7.016970105212657
19 2 7.016970105212657 3.508485052606328 3.508485052606328
20 2 3.508485052606328 3.508485052606328 3.508485052606328
21 2 1.754242526303165 1.754242526303164 7.016970105212657
22 2 1.754242526303165 1.754242526303164 3.508485052606328
23 2 1.754242526303164 5.262727578909493 7.016970105212656
24 2 5.272727578909493 1.754242526303164 7.016970105212656
25 2 0.000000000000000 1.754242526303164 1.754242526303164
26 2 7.016970105212656 1.754242526303163 5.262727578909492
27 2 7.016970105212656 5.262727578909493 1.754242526303163
28 2 3.508485052606327 1.754242526303164 1.754242526303164
29 2 1.754242526303164 7.016970105212656 1.754242526303164
30 2 1.754242526303164 0.000000000000001 5.262727578909492
31 2 1.754242526303164 3.508485052606327 5.262727578909492
32 2 5.262727578909494 7.016970105212656 5.262727578909493
